This file generated polymers for LAMMPS

7800	atoms
1710	bonds
0	angles
0	dihedrals
0	impropers

5	atom types
1	bond types
0	angle types
0	dihedral types
0	improper types

-10.0 10.0 xlo xhi
-10.0 10.0 ylo yhi
-10.0 10.0 zlo zhi

Masses

1	 1
2	 1
3	 1
4	 1
5	 1

Atoms

1	1	2	0.5		0.4211	-6.0410	-4.9808
2	1	1	1.0		0.8489	-6.1495	-4.0835
3	1	2	0.5		1.0344	-6.3056	-3.1133
4	1	1	1.0		1.3080	-5.3559	-2.9608
5	1	2	0.5		0.8913	-4.9772	-3.7872
6	1	1	1.0		1.4325	-5.0512	-2.9496
7	1	2	0.5		1.3799	-4.7019	-2.0140
8	1	1	1.0		0.5368	-5.0388	-2.4330
9	1	2	0.5		0.3710	-5.5184	-1.5713
10	1	1	1.0		0.4008	-5.5193	-2.5709
11	1	2	0.5		-0.4628	-5.6883	-3.0458
12	1	1	1.0		-0.8171	-5.6306	-2.1124
13	1	2	0.5		-0.8967	-6.0158	-3.0318
14	1	1	1.0		-0.9120	-5.6335	-2.1079
15	1	2	0.5		-0.3036	-5.5306	-1.3210
16	1	1	1.0		-1.2926	-5.6223	-1.2054
17	1	2	0.5		-0.3010	-5.6318	-1.3338
18	1	1	1.0		-0.1807	-5.8078	-0.3568
19	1	2	0.5		-0.9820	-6.4044	-0.3112
20	1	1	1.0		-0.5819	-5.6326	-0.8055
21	2	2	0.5		-3.2068	4.6757	-3.4972
22	2	1	1.0		-2.6839	5.2499	-2.8673
23	2	2	0.5		-3.2096	5.9216	-3.3892
24	2	1	1.0		-3.2511	4.9279	-3.2855
25	2	2	0.5		-3.2640	4.9183	-2.2856
26	2	1	1.0		-2.7685	4.8098	-1.4238
27	2	2	0.5		-2.7236	4.6879	-2.4153
28	2	1	1.0		-3.5212	5.2900	-2.3803
29	2	2	0.5		-3.6319	5.2924	-1.3865
30	2	1	1.0		-3.9659	5.2903	-2.3290
31	2	2	0.5		-4.1791	6.1156	-1.8062
32	2	1	1.0		-4.7678	6.2797	-1.0146
33	2	2	0.5		-4.4630	6.2835	-1.9670
34	2	1	1.0		-4.2009	6.3579	-2.9292
35	2	2	0.5		-4.3827	6.3383	-1.9461
36	2	1	1.0		-3.6663	5.6663	-2.1338
37	2	2	0.5		-4.3678	6.2574	-1.7357
38	2	1	1.0		-4.4417	5.7373	-2.5866
39	2	2	0.5		-4.7757	5.4790	-3.4931
40	2	1	1.0		-5.1109	5.5995	-2.5587
41	3	2	0.5		0.3486	-4.2064	6.9955
42	3	1	1.0		0.8636	-4.7131	7.6869
43	3	2	0.5		1.6670	-4.7013	8.2821
44	3	1	1.0		1.6136	-4.4630	9.2519
45	3	2	0.5		1.4342	-3.5317	8.9348
46	3	1	1.0		0.5473	-3.8826	9.2353
47	3	2	0.5		0.2183	-4.6308	8.6589
48	3	1	1.0		0.7681	-5.1642	8.0162
49	3	2	0.5		0.4819	-5.4428	8.9329
50	3	1	1.0		-0.0335	-6.0695	9.5173
51	3	2	0.5		-0.5177	-5.6044	-9.7415
52	3	1	1.0		-0.5890	-5.4017	-8.7649
53	3	2	0.5		-0.2670	-5.4169	-9.7115
54	3	1	1.0		0.1552	-6.2560	9.9455
55	3	2	0.5		0.1421	-6.2687	8.9457
56	3	1	1.0		0.6602	-5.8624	9.6983
57	3	2	0.5		-0.0446	-5.7264	-9.6054
58	3	1	1.0		0.2132	-6.4329	-8.9463
59	3	2	0.5		-0.7365	-6.4870	-9.2547
60	3	1	1.0		0.0736	-6.4982	-9.8409
61	4	2	0.5		-5.2277	6.4534	-5.8095
62	4	1	1.0		-5.4054	6.6770	-4.8512
63	4	2	0.5		-5.0336	6.7090	-3.9234
64	4	1	1.0		-4.5514	6.9322	-3.0763
65	4	2	0.5		-4.0471	6.4924	-2.3331
66	4	1	1.0		-4.9691	6.1768	-2.1088
67	4	2	0.5		-4.2869	5.4456	-2.1074
68	4	1	1.0		-3.3360	5.4237	-1.7987
69	4	2	0.5		-4.2644	5.1677	-1.5295
70	4	1	1.0		-5.2404	5.2843	-1.3458
71	4	2	0.5		-5.2782	5.1996	-2.3415
72	4	1	1.0		-6.1624	5.5623	-2.6357
73	4	2	0.5		-5.7148	5.5446	-3.5298
74	4	1	1.0		-5.5938	5.2794	-4.4864
75	4	2	0.5		-5.1854	5.8243	-5.2187
76	4	1	1.0		-5.1752	5.8310	-6.2187
77	4	2	0.5		-4.8131	6.2414	-7.0556
78	4	1	1.0		-4.8937	6.0496	-8.0337
79	4	2	0.5		-4.2577	6.7360	-8.3865
80	4	1	1.0		-4.0403	7.1365	-9.2766
81	5	2	0.5		0.0285	-9.3926	5.3286
82	5	1	1.0		0.7511	-9.6849	4.7021
83	5	2	0.5		1.6312	-9.2413	4.5329
84	5	1	1.0		1.8095	-8.3180	4.1926
85	5	2	0.5		2.2910	-8.6637	3.3872
86	5	1	1.0		2.2363	-8.6111	4.3843
87	5	2	0.5		2.1736	-8.6703	3.3881
88	5	1	1.0		2.1659	-8.0131	4.1417
89	5	2	0.5		2.5145	-7.3006	3.5327
90	5	1	1.0		2.4438	-7.2540	4.5291
91	5	2	0.5		2.3817	-7.1524	3.5363
92	5	1	1.0		2.3664	-7.1773	2.5367
93	5	2	0.5		1.5268	-6.8505	2.1027
94	5	1	1.0		1.7746	-6.5322	1.1877
95	5	2	0.5		1.3769	-6.6815	2.0929
96	5	1	1.0		1.1011	-7.5935	2.3968
97	5	2	0.5		1.0493	-7.5891	3.3955
98	5	1	1.0		0.4215	-8.2807	3.0382
99	5	2	0.5		0.8470	-8.3013	3.9430
100	5	1	1.0		0.3243	-8.1826	4.7872
101	6	2	0.5		-6.3852	5.4105	-5.4953
102	6	1	1.0		-6.4408	5.4884	-6.4907
103	6	2	0.5		-5.7719	5.9495	-5.9077
104	6	1	1.0		-5.5006	5.2169	-6.5320
105	6	2	0.5		-6.1003	4.9350	-7.2809
106	6	1	1.0		-6.1465	5.0439	-6.2879
107	6	2	0.5		-5.4501	4.9245	-6.9955
108	6	1	1.0		-5.9655	5.0621	-6.1497
109	6	2	0.5		-6.6618	4.6528	-6.7394
110	6	1	1.0		-6.4555	5.3734	-7.4014
111	6	2	0.5		-6.2355	4.4576	-7.7374
112	6	1	1.0		-6.3738	4.6781	-8.7029
113	6	2	0.5		-6.3940	4.6213	-9.7011
114	6	1	1.0		-6.1377	4.1280	-8.8699
115	6	2	0.5		-6.6505	3.4810	-8.3057
116	6	1	1.0		-6.2253	4.3798	-8.4123
117	6	2	0.5		-5.9284	4.7096	-7.5162
118	6	1	1.0		-5.9597	4.7797	-8.5132
119	6	2	0.5		-6.3874	4.9198	-9.4062
120	6	1	1.0		-6.2168	4.0228	-8.9984
121	7	2	0.5		5.7332	-8.4422	-6.1746
122	7	1	1.0		5.2659	-8.6305	-5.3108
123	7	2	0.5		5.2626	-8.8220	-6.2923
124	7	1	1.0		5.8848	-9.3975	-6.8230
125	7	2	0.5		6.0440	-9.3888	-5.8358
126	7	1	1.0		6.5556	-9.5555	-4.9929
127	7	2	0.5		6.4401	-9.5483	-3.9996
128	7	1	1.0		5.5863	-9.0932	-4.2525
129	7	2	0.5		5.4396	-9.5245	-5.1427
130	7	1	1.0		5.3437	-9.0024	-4.2952
131	7	2	0.5		4.6574	-9.5981	-3.8779
132	7	1	1.0		4.7588	-8.9354	-4.6199
133	7	2	0.5		3.8431	-8.9649	-4.2193
134	7	1	1.0		4.4597	-8.7579	-3.4598
135	7	2	0.5		5.0544	-8.2994	-4.1202
136	7	1	1.0		4.8402	-8.1892	-5.0907
137	7	2	0.5		4.7581	-8.0624	-4.1022
138	7	1	1.0		3.9746	-8.2963	-3.5265
139	7	2	0.5		3.8790	-8.3392	-2.5320
140	7	1	1.0		3.1822	-9.0497	-2.4330
141	8	2	0.5		7.7368	3.0234	0.8032
142	8	1	1.0		8.4733	3.5372	0.3631
143	8	2	0.5		8.9384	3.3967	1.2371
144	8	1	1.0		9.1926	3.0599	2.1437
145	8	2	0.5		9.4675	2.4551	2.8912
146	8	1	1.0		8.7959	2.2641	3.6070
147	8	2	0.5		8.1650	2.7021	2.9666
148	8	1	1.0		8.5503	3.5633	3.2982
149	8	2	0.5		9.0582	3.0707	2.5915
150	8	1	1.0		9.0574	2.2622	2.0030
151	8	2	0.5		9.3971	2.0980	2.9291
152	8	1	1.0		-9.8341	2.6965	2.7037
153	8	2	0.5		9.9829	2.7866	1.7247
154	8	1	1.0		-9.6484	2.2010	2.4465
155	8	2	0.5		-9.9615	2.4066	1.5193
156	8	1	1.0		-9.9874	3.4060	1.4996
157	8	2	0.5		-9.0581	3.7752	1.5120
158	8	1	1.0		-9.6692	4.4148	1.9783
159	8	2	0.5		-9.5852	5.0660	1.2240
160	8	1	1.0		-9.3071	4.7090	0.3323
161	9	2	0.5		3.4825	4.5077	8.6563
162	9	1	1.0		3.7026	5.4684	8.8253
163	9	2	0.5		3.9372	4.8539	8.0721
164	9	1	1.0		4.4133	4.5136	7.2612
165	9	2	0.5		3.7963	4.4983	6.4744
166	9	1	1.0		4.2408	4.9731	7.2340
167	9	2	0.5		3.6213	5.2336	6.4935
168	9	1	1.0		3.3882	6.1972	6.3624
169	9	2	0.5		3.3735	5.3070	6.8179
170	9	1	1.0		2.8779	5.2781	5.9498
171	9	2	0.5		2.1786	4.8011	5.4174
172	9	1	1.0		2.0860	4.6449	6.4007
173	9	2	0.5		1.8727	4.6891	7.3767
174	9	1	1.0		0.9933	5.1563	7.4682
175	9	2	0.5		0.4260	4.5882	8.0644
176	9	1	1.0		0.3877	3.7229	8.5643
177	9	2	0.5		0.4783	3.7850	9.5583
178	9	1	1.0		0.5754	2.8444	9.8836
179	9	2	0.5		1.0417	3.5687	-9.6085
180	9	1	1.0		1.3843	2.8048	9.8447
181	10	2	0.5		4.5443	4.1564	-4.5705
182	10	1	1.0		4.3909	3.8996	-3.6162
183	10	2	0.5		5.0789	4.1248	-2.9263
184	10	1	1.0		4.3374	4.3723	-3.5500
185	10	2	0.5		3.8900	3.7657	-4.2072
186	10	1	1.0		3.9659	3.1602	-4.9994
187	10	2	0.5		4.0769	2.9289	-4.0329
188	10	1	1.0		3.0777	2.9260	-4.0728
189	10	2	0.5		3.4160	3.6161	-4.7125
190	10	1	1.0		3.0080	4.1078	-3.9432
191	10	2	0.5		3.8178	3.5955	-4.2294
192	10	1	1.0		4.0861	4.4684	-4.6371
193	10	2	0.5		3.6805	4.7833	-3.7790
194	10	1	1.0		3.2008	4.5542	-2.9320
195	10	2	0.5		3.2361	4.6012	-1.9337
196	10	1	1.0		2.8243	4.8011	-1.0447
197	10	2	0.5		2.7922	4.1401	-0.2950
198	10	1	1.0		3.5877	4.4875	0.2015
199	10	2	0.5		2.6314	4.2385	0.0482
200	10	1	1.0		2.8475	4.8952	0.7707
201	11	2	0.5		3.3168	-0.0600	-1.4806
202	11	1	1.0		2.7468	-0.3143	-2.2619
203	11	2	0.5		2.6869	-0.2673	-1.2648
204	11	1	1.0		3.2964	0.5249	-1.2956
205	11	2	0.5		2.7539	1.3615	-1.3716
206	11	1	1.0		3.6731	0.9747	-1.2972
207	11	2	0.5		4.3512	1.4063	-0.7024
208	11	1	1.0		4.6970	0.4992	-0.4622
209	11	2	0.5		4.1386	-0.1561	-0.9710
210	11	1	1.0		4.1322	-0.4931	-1.9124
211	11	2	0.5		3.2422	-0.6585	-1.4874
212	11	1	1.0		3.2157	-1.0432	-2.4100
213	11	2	0.5		3.4249	-1.7966	-3.0335
214	11	1	1.0		3.5397	-1.3429	-3.9172
215	11	2	0.5		2.8723	-0.6164	-3.7533
216	11	1	1.0		2.7428	0.1155	-3.0844
217	11	2	0.5		2.7776	0.0966	-2.0852
218	11	1	1.0		3.1456	-0.3106	-1.2493
219	11	2	0.5		2.2370	-0.7266	-1.2115
220	11	1	1.0		2.8557	-1.4931	-1.3839
221	12	2	0.5		-8.1411	-2.1171	-2.0407
222	12	1	1.0		-8.7573	-1.7569	-2.7411
223	12	2	0.5		-9.2751	-1.0410	-2.2725
224	12	1	1.0		-9.5513	-0.6468	-1.3960
225	12	2	0.5		-9.3341	-1.1787	-2.2145
226	12	1	1.0		-9.3705	-1.2146	-3.2132
227	12	2	0.5		-9.4906	-1.4852	-4.1684
228	12	1	1.0		-8.9553	-2.2093	-4.6033
229	12	2	0.5		-9.9348	-2.3881	-4.6954
230	12	1	1.0		-9.9636	-2.3132	-3.6986
231	12	2	0.5		9.6054	-2.2678	-4.5998
232	12	1	1.0		9.9466	-1.6676	-3.8764
233	12	2	0.5		-9.2051	-1.2263	-4.1690
234	12	1	1.0		-9.2600	-1.2767	-3.1718
235	12	2	0.5		-9.2470	-0.2768	-3.1691
236	12	1	1.0		-9.2677	0.1225	-4.0857
237	12	2	0.5		-8.4176	0.3887	-4.5401
238	12	1	1.0		-8.0873	-0.3161	-5.1679
239	12	2	0.5		-8.1926	-0.5414	-4.1993
240	12	1	1.0		-8.7301	-0.0717	-4.8997
241	13	2	0.5		-2.9788	-8.6086	3.9053
242	13	1	1.0		-3.2555	-8.9817	3.0198
243	13	2	0.5		-3.8331	-9.2678	2.2552
244	13	1	1.0		-3.9618	-9.4470	3.2306
245	13	2	0.5		-3.6826	-9.2649	4.1734
246	13	1	1.0		-4.3224	-8.7020	4.6966
247	13	2	0.5		-3.9834	-8.7263	3.7562
248	13	1	1.0		-3.3472	-8.3791	3.0672
249	13	2	0.5		-4.0949	-8.7384	3.6257
250	13	1	1.0		-3.8705	-9.4004	2.9105
251	13	2	0.5		-4.4487	-9.9172	3.5419
252	13	1	1.0		-4.4580	-9.9245	4.5418
253	13	2	0.5		-5.3477	9.6423	4.3981
254	13	1	1.0		-5.5288	9.6116	5.3810
255	13	2	0.5		-4.5837	9.4392	5.1034
256	13	1	1.0		-4.0435	9.2448	5.9222
257	13	2	0.5		-3.3645	9.9773	5.9730
258	13	1	1.0		-3.4070	9.8391	4.9835
259	13	2	0.5		-4.0167	9.5275	4.2547
260	13	1	1.0		-4.8700	9.4791	3.7356
261	14	2	0.5		-6.9035	-3.1029	5.9176
262	14	1	1.0		-6.9088	-3.1507	4.9188
263	14	2	0.5		-7.8641	-3.4237	4.8054
264	14	1	1.0		-7.4625	-4.3366	4.8793
265	14	2	0.5		-8.4055	-4.1079	4.6377
266	14	1	1.0		-9.0353	-3.8703	3.8981
267	14	2	0.5		-8.8801	-4.8417	4.0780
268	14	1	1.0		-8.8943	-4.5994	3.1079
269	14	2	0.5		-9.1702	-4.8998	2.1948
270	14	1	1.0		-9.6789	-4.4830	1.4415
271	14	2	0.5		9.9667	-5.3130	1.8722
272	14	1	1.0		-9.7446	-4.8549	2.7130
273	14	2	0.5		9.5936	-5.4319	2.2344
274	14	1	1.0		-9.5589	-4.9054	2.1673
275	14	2	0.5		-8.6661	-4.8743	1.7179
276	14	1	1.0		-9.3311	-5.0485	2.4441
277	14	2	0.5		-9.0234	-5.1258	3.3924
278	14	1	1.0		-8.9682	-5.0330	2.3983
279	14	2	0.5		-8.8873	-5.1315	1.4064
280	14	1	1.0		-8.8330	-4.9477	0.4250
281	15	2	0.5		5.3694	-1.7173	-1.7212
282	15	1	1.0		5.7708	-1.2044	-2.4801
283	15	2	0.5		5.6803	-1.2108	-3.4759
284	15	1	1.0		6.0583	-1.8519	-2.8080
285	15	2	0.5		5.2959	-1.8175	-2.1618
286	15	1	1.0		5.5144	-1.9518	-3.1284
287	15	2	0.5		6.0663	-1.1302	-2.9857
288	15	1	1.0		5.5956	-0.8540	-3.8237
289	15	2	0.5		5.5146	-1.7977	-4.1444
290	15	1	1.0		4.9110	-1.7742	-4.9414
291	15	2	0.5		5.1345	-1.5030	-5.8776
292	15	1	1.0		5.3876	-1.0674	-6.7414
293	15	2	0.5		5.7941	-1.8638	-7.1893
294	15	1	1.0		5.2669	-1.0442	-7.4138
295	15	2	0.5		5.5823	-0.5688	-8.2350
296	15	1	1.0		4.8382	-0.7345	-8.8821
297	15	2	0.5		5.4910	-0.2176	-8.3284
298	15	1	1.0		4.6906	-0.8039	-8.4535
299	15	2	0.5		4.3109	-0.2038	-9.1575
300	15	1	1.0		4.1278	0.5662	-9.7687
301	16	2	0.5		7.7915	-0.7139	-6.0942
302	16	1	1.0		8.3167	-0.3346	-6.8560
303	16	2	0.5		7.8500	-0.9051	-6.1802
304	16	1	1.0		8.8464	-0.9710	-6.1272
305	16	2	0.5		9.2848	-1.3395	-5.3075
306	16	1	1.0		9.2013	-0.8126	-4.4617
307	16	2	0.5		8.9111	-1.0576	-3.5366
308	16	1	1.0		9.2696	-0.7705	-2.6483
309	16	2	0.5		8.5894	-0.0378	-2.6714
310	16	1	1.0		8.7357	-0.2011	-3.6471
311	16	2	0.5		7.7856	0.1056	-3.7054
312	16	1	1.0		8.0986	0.6003	-4.5162
313	16	2	0.5		8.0866	0.6024	-3.5162
314	16	1	1.0		7.7844	0.2525	-4.4029
315	16	2	0.5		7.7508	0.4361	-3.4205
316	16	1	1.0		8.0566	-0.3817	-2.9329
317	16	2	0.5		8.6622	0.0132	-2.2420
318	16	1	1.0		7.9931	0.7313	-2.4335
319	16	2	0.5		8.0012	0.6694	-1.4354
320	16	1	1.0		8.6514	1.4078	-1.2568
321	17	2	0.5		2.0709	-4.3430	-5.9747
322	17	1	1.0		1.8765	-5.3210	-5.8985
323	17	2	0.5		2.1980	-6.2119	-5.5778
324	17	1	1.0		2.7338	-6.0601	-6.4084
325	17	2	0.5		3.3358	-6.5895	-7.0062
326	17	1	1.0		3.3713	-6.3212	-6.0436
327	17	2	0.5		2.3946	-6.1198	-5.9689
328	17	1	1.0		2.1844	-6.0275	-6.9422
329	17	2	0.5		1.8281	-5.5093	-6.1647
330	17	1	1.0		1.3119	-6.0371	-6.8392
331	17	2	0.5		1.4295	-5.8588	-5.8622
332	17	1	1.0		1.8179	-5.5298	-5.0015
333	17	2	0.5		2.5155	-5.6640	-4.2977
334	17	1	1.0		2.2589	-5.9237	-3.3667
335	17	2	0.5		2.1938	-6.0688	-4.3539
336	17	1	1.0		1.3645	-6.5567	-4.6264
337	17	2	0.5		0.8177	-6.2629	-5.4105
338	17	1	1.0		1.7871	-6.4039	-5.6115
339	17	2	0.5		2.7514	-6.6504	-5.7080
340	17	1	1.0		2.2904	-6.2558	-6.5029
341	18	2	0.5		-0.2166	-1.3959	1.6998
342	18	1	1.0		-0.1622	-0.5646	1.1466
343	18	2	0.5		-0.5605	-1.0185	1.9437
344	18	1	1.0		-1.2190	-0.7146	1.2552
345	18	2	0.5		-0.5294	-1.3148	0.8500
346	18	1	1.0		-0.8457	-0.4341	1.2027
347	18	2	0.5		-0.4481	-1.3491	1.1342
348	18	1	1.0		-0.8755	-2.0010	1.7605
349	18	2	0.5		-1.5084	-2.5979	1.2673
350	18	1	1.0		-1.4981	-1.9589	0.4982
351	18	2	0.5		-1.4534	-1.0837	0.0164
352	18	1	1.0		-1.3437	-1.0452	1.0096
353	18	2	0.5		-1.2534	-0.3541	0.2926
354	18	1	1.0		-1.3393	-1.1940	0.8284
355	18	2	0.5		-1.6927	-0.6994	0.0344
356	18	1	1.0		-1.7182	-0.7723	-0.9626
357	18	2	0.5		-1.8410	-0.5113	-1.9201
358	18	1	1.0		-1.5599	-0.5234	-0.9605
359	18	2	0.5		-2.1427	-0.2166	-0.2080
360	18	1	1.0		-2.7095	0.2930	-0.8555
361	19	2	0.5		6.4546	-7.5065	-5.3325
362	19	1	1.0		5.5283	-7.1412	-5.2402
363	19	2	0.5		6.5117	-7.0770	-5.4100
364	19	1	1.0		6.9614	-6.2120	-5.1875
365	19	2	0.5		6.1118	-6.7380	-5.1499
366	19	1	1.0		6.9695	-6.5224	-5.6167
367	19	2	0.5		7.3978	-6.5489	-4.7135
368	19	1	1.0		7.6963	-7.2280	-5.3841
369	19	2	0.5		7.1568	-6.4085	-5.5776
370	19	1	1.0		6.9168	-5.4962	-5.9094
371	19	2	0.5		7.1837	-6.1488	-5.2003
372	19	1	1.0		7.7698	-6.9585	-5.2317
373	19	2	0.5		7.5911	-6.7053	-4.2809
374	19	1	1.0		8.0547	-6.0563	-3.6776
375	19	2	0.5		7.7918	-6.1873	-4.6335
376	19	1	1.0		7.6216	-5.3629	-4.0937
377	19	2	0.5		7.7828	-5.3461	-5.0805
378	19	1	1.0		7.2269	-4.5432	-4.8651
379	19	2	0.5		7.9138	-3.8805	-5.1632
380	19	1	1.0		8.3052	-3.5142	-4.3190
381	20	2	0.5		-3.1715	-5.1914	2.2602
382	20	1	1.0		-2.4565	-5.8905	2.2487
383	20	2	0.5		-1.7105	-5.9451	2.9124
384	20	1	1.0		-1.5556	-5.1957	3.5562
385	20	2	0.5		-1.9599	-4.2972	3.3856
386	20	1	1.0		-1.1544	-3.9422	2.9111
387	20	2	0.5		-1.4254	-4.4788	3.7102
388	20	1	1.0		-1.5140	-4.4383	2.7150
389	20	2	0.5		-1.3995	-4.4283	3.7083
390	20	1	1.0		-0.9971	-3.7836	4.3583
391	20	2	0.5		-1.0899	-3.7872	5.3540
392	20	1	1.0		-1.5080	-4.6164	5.7252
393	20	2	0.5		-2.3304	-4.9187	5.2434
394	20	1	1.0		-1.9044	-4.0705	4.9287
395	20	2	0.5		-2.0471	-3.0807	4.9297
396	20	1	1.0		-2.8817	-2.8052	4.4526
397	20	2	0.5		-2.1902	-2.0946	4.5827
398	20	1	1.0		-2.1593	-2.0116	3.5866
399	20	2	0.5		-1.8819	-1.9133	4.5423
400	20	1	1.0		-1.9590	-1.3955	3.6903
401	21	2	0.5		8.1451	5.1485	-2.6520
402	21	2	0.5		8.5945	5.5004	-3.4732
403	21	2	0.5		8.4236	5.3008	-2.5083
404	21	2	0.5		7.6686	5.9078	-2.2602
405	21	2	0.5		7.2980	5.9287	-1.3317
406	21	2	0.5		6.4278	5.8147	-0.8524
407	21	2	0.5		6.2002	4.8909	-0.5445
408	21	2	0.5		5.5099	5.2370	-1.1799
409	21	2	0.5		5.2238	4.8338	-2.0492
410	21	2	0.5		4.7938	5.4788	-1.4176
411	21	2	0.5		5.7508	5.4021	-1.1381
412	21	2	0.5		6.4145	5.5283	-0.4008
413	21	2	0.5		6.4288	5.5404	-1.4006
414	21	2	0.5		6.4306	5.5284	-2.4005
415	21	2	0.5		6.4084	6.0200	-1.5300
416	21	2	0.5		5.9328	6.7550	-1.0466
417	21	2	0.5		6.2440	7.6298	-1.4180
418	21	2	0.5		6.5845	8.4160	-1.9336
419	21	2	0.5		7.5104	8.0723	-1.7768
420	21	2	0.5		6.7515	8.1042	-1.1264
421	22	2	0.5		-9.6906	4.4398	9.7760
422	22	2	0.5		-9.6530	3.4881	9.4711
423	22	2	0.5		-8.9281	3.9657	9.9676
424	22	2	0.5		-9.2356	4.7864	-9.5509
425	22	2	0.5		-9.0975	4.5188	-8.5973
426	22	2	0.5		-9.4392	3.5926	-8.7566
427	22	2	0.5		-9.8346	3.2238	-7.9154
428	22	2	0.5		9.5520	3.5325	-8.6424
429	22	2	0.5		-9.5556	3.9575	-8.7939
430	22	2	0.5		9.6339	3.9585	-8.2082
431	22	2	0.5		-9.6011	4.2132	-8.7997
432	22	2	0.5		-8.9069	4.4624	-8.1245
433	22	2	0.5		-8.9389	4.4362	-7.1253
434	22	2	0.5		-9.1057	4.8400	-8.0248
435	22	2	0.5		-9.4170	3.9133	-7.8141
436	22	2	0.5		-8.9548	4.7768	-7.6118
437	22	2	0.5		-8.8505	5.0854	-6.6663
438	22	2	0.5		-8.7496	5.8352	-7.3202
439	22	2	0.5		-8.1770	5.4308	-8.0333
440	22	2	0.5		-8.4692	5.7271	-8.9426
441	23	2	0.5		-1.2278	3.7346	1.2364
442	23	2	0.5		-0.9765	2.7728	1.1278
443	23	2	0.5		-1.0681	2.8694	0.1367
444	23	2	0.5		-0.7468	3.3258	0.9664
445	23	2	0.5		-0.7378	2.8992	0.0620
446	23	2	0.5		-0.5635	2.7153	1.0294
447	23	2	0.5		-0.1473	3.2233	1.7835
448	23	2	0.5		0.3015	2.3302	1.7528
449	23	2	0.5		0.5043	2.8184	0.9040
450	23	2	0.5		1.0414	3.6438	0.7298
451	23	2	0.5		1.1872	3.2890	-0.1937
452	23	2	0.5		0.3403	3.1060	-0.6929
453	23	2	0.5		0.5096	3.1063	0.2926
454	23	2	0.5		0.0959	2.6667	1.0899
455	23	2	0.5		0.0560	2.8228	0.1030
456	23	2	0.5		0.0278	2.8375	1.1025
457	23	2	0.5		-0.5525	2.1120	0.7324
458	23	2	0.5		-0.0578	2.6637	1.4040
459	23	2	0.5		-0.2843	2.6992	0.4306
460	23	2	0.5		-0.4337	2.8866	-0.5403
461	24	2	0.5		-1.0192	0.5379	4.4801
462	24	2	0.5		-0.6327	1.2359	3.8773
463	24	2	0.5		-0.5324	0.9430	4.8281
464	24	2	0.5		-1.3529	1.4163	4.5075
465	24	2	0.5		-1.9943	0.6713	4.3242
466	24	2	0.5		-1.6800	1.4984	3.8581
467	24	2	0.5		-1.2471	0.6011	3.7720
468	24	2	0.5		-1.2136	1.5737	3.5419
469	24	2	0.5		-0.6213	1.7770	2.7622
470	24	2	0.5		0.3360	2.0473	2.8646
471	24	2	0.5		-0.6635	2.0784	2.8743
472	24	2	0.5		-1.5832	1.7274	3.0499
473	24	2	0.5		-0.7027	2.0879	2.7422
474	24	2	0.5		-0.7122	1.3714	3.4396
475	24	2	0.5		-0.1218	0.5889	3.6376
476	24	2	0.5		0.2091	0.7310	4.5705
477	24	2	0.5		0.2433	0.7717	3.5719
478	24	2	0.5		-0.6561	0.4141	3.3204
479	24	2	0.5		0.0951	-0.0645	3.7750
480	24	2	0.5		0.2408	0.0482	2.7921
481	25	2	0.5		4.9167	4.3925	-7.4886
482	25	2	0.5		3.9618	4.1107	-7.5823
483	25	2	0.5		3.9955	3.8108	-6.6290
484	25	2	0.5		4.5192	3.0872	-7.0785
485	25	2	0.5		3.5603	3.3036	-6.8954
486	25	2	0.5		4.1460	2.5728	-7.2459
487	25	2	0.5		4.8194	2.8053	-7.9476
488	25	2	0.5		4.7745	2.9541	-6.9598
489	25	2	0.5		4.5296	3.3894	-7.8261
490	25	2	0.5		3.5531	3.4892	-8.0171
491	25	2	0.5		3.6667	3.8460	-8.9443
492	25	2	0.5		4.5699	4.0581	-8.5710
493	25	2	0.5		4.6862	4.6799	-7.7966
494	25	2	0.5		4.6990	4.7499	-8.7941
495	25	2	0.5		4.6027	5.0028	-7.8314
496	25	2	0.5		4.8068	4.1175	-7.4137
497	25	2	0.5		4.7474	4.9622	-7.9456
498	25	2	0.5		5.1382	5.6855	-8.5149
499	25	2	0.5		4.7598	5.5270	-9.4268
500	25	2	0.5		4.7793	5.5492	-8.4273
501	26	2	0.5		-8.8604	-3.4169	-0.1727
502	26	2	0.5		-8.9639	-3.9168	0.6872
503	26	2	0.5		-9.5959	-3.1469	0.7750
504	26	2	0.5		-9.9538	-2.3188	0.3435
505	26	2	0.5		-9.9326	-2.6736	1.2782
506	26	2	0.5		9.1657	-3.0025	1.5589
507	26	2	0.5		8.5410	-2.4190	2.0780
508	26	2	0.5		7.8125	-1.7355	2.0332
509	26	2	0.5		7.3552	-0.8889	1.7607
510	26	2	0.5		7.3624	-0.8802	2.7607
511	26	2	0.5		7.7991	0.0150	2.8496
512	26	2	0.5		7.6704	0.0357	1.8581
513	26	2	0.5		6.9227	0.1945	1.2134
514	26	2	0.5		7.6588	-0.1200	0.6141
515	26	2	0.5		7.6271	-0.2064	-0.3816
516	26	2	0.5		7.0026	-0.6206	0.2806
517	26	2	0.5		6.1399	-0.5799	0.7846
518	26	2	0.5		5.8549	-0.9038	1.6867
519	26	2	0.5		6.1696	-1.7944	1.3585
520	26	2	0.5		6.8123	-1.2389	0.8310
521	27	2	0.5		1.5600	-9.6438	1.8406
522	27	2	0.5		1.3090	9.4205	1.5927
523	27	2	0.5		0.5140	-9.9757	1.6528
524	27	2	0.5		1.3859	-9.6032	1.3349
525	27	2	0.5		0.7017	-9.1119	0.7960
526	27	2	0.5		0.7118	-9.7829	1.5374
527	27	2	0.5		0.4687	9.9865	2.4796
528	27	2	0.5		-0.4924	-9.8292	2.2740
529	27	2	0.5		-1.4348	9.8957	2.4639
530	27	2	0.5		-0.9193	9.7120	3.3009
531	27	2	0.5		-0.6558	-9.9988	4.2212
532	27	2	0.5		0.2176	9.6542	3.8795
533	27	2	0.5		0.2664	9.5813	4.8756
534	27	2	0.5		0.9318	9.4575	5.6118
535	27	2	0.5		0.6437	9.2780	6.5524
536	27	2	0.5		-0.0686	8.8375	6.0060
537	27	2	0.5		0.2862	8.7369	5.0765
538	27	2	0.5		-0.6759	8.7907	4.8089
539	27	2	0.5		-1.4100	9.4118	5.0832
540	27	2	0.5		-1.8533	9.8446	5.8682
541	28	2	0.5		4.1920	-6.6409	2.6766
542	28	2	0.5		4.3926	-5.7531	2.2623
543	28	2	0.5		5.3919	-5.7667	2.2965
544	28	2	0.5		6.0501	-6.5194	2.2813
545	28	2	0.5		5.9191	-7.5108	2.2810
546	28	2	0.5		5.8914	-6.9214	1.4736
547	28	2	0.5		6.0474	-6.8181	0.4913
548	28	2	0.5		6.1289	-7.1864	-0.4348
549	28	2	0.5		6.9155	-6.5828	-0.3042
550	28	2	0.5		7.5246	-6.8944	-1.0334
551	28	2	0.5		6.7952	-7.1538	-0.4005
552	28	2	0.5		6.9721	-7.2397	0.5800
553	28	2	0.5		6.1419	-7.7686	0.4034
554	28	2	0.5		5.5967	-7.3426	-0.3186
555	28	2	0.5		6.2793	-7.0336	0.3437
556	28	2	0.5		5.7708	-6.4231	0.9509
557	28	2	0.5		5.7023	-7.3653	1.2787
558	28	2	0.5		5.8793	-7.4067	0.2953
559	28	2	0.5		5.0399	-7.8079	-0.0714
560	28	2	0.5		5.6836	-8.4069	-0.5476
561	29	2	0.5		1.5565	5.6582	6.7876
562	29	2	0.5		1.4998	6.0937	7.6860
563	29	2	0.5		2.0609	6.0714	6.8586
564	29	2	0.5		1.7058	5.7660	7.7421
565	29	2	0.5		2.1841	5.1095	8.3253
566	29	2	0.5		1.7825	4.8567	7.4451
567	29	2	0.5		1.6517	4.1952	6.7066
568	29	2	0.5		1.4505	4.2892	5.7316
569	29	2	0.5		1.3022	3.3919	5.3158
570	29	2	0.5		0.5850	3.1869	5.9818
571	29	2	0.5		0.6628	2.4637	6.6680
572	29	2	0.5		0.5636	2.5015	7.6623
573	29	2	0.5		0.9102	2.1682	6.7856
574	29	2	0.5		0.7916	2.1006	5.7949
575	29	2	0.5		-0.2000	1.9898	5.7285
576	29	2	0.5		0.0861	1.0705	5.9989
577	29	2	0.5		-0.5058	1.2451	5.2119
578	29	2	0.5		-0.9168	0.3378	5.1230
579	29	2	0.5		-0.8620	0.9067	5.9436
580	29	2	0.5		-1.8388	0.7945	5.7615
581	30	2	0.5		-7.9210	0.5343	1.1231
582	30	2	0.5		-6.9889	0.7401	0.8250
583	30	2	0.5		-6.5269	0.6530	1.7076
584	30	2	0.5		-6.1099	0.6291	0.7990
585	30	2	0.5		-5.4222	-0.0893	0.6943
586	30	2	0.5		-5.3987	0.2229	-0.2554
587	30	2	0.5		-6.3328	0.0583	-0.5722
588	30	2	0.5		-6.7480	0.9243	-0.8509
589	30	2	0.5		-7.2045	1.2008	-0.0052
590	30	2	0.5		-7.3613	0.4075	-0.5936
591	30	2	0.5		-6.7199	-0.2969	-0.8975
592	30	2	0.5		-7.0702	-1.1648	-0.5452
593	30	2	0.5		-6.6820	-2.0499	-0.8020
594	30	2	0.5		-6.9587	-1.8666	0.1413
595	30	2	0.5		-7.4763	-1.1147	-0.2670
596	30	2	0.5		-7.6154	-1.9399	-0.8143
597	30	2	0.5		-8.5047	-2.3761	-0.6772
598	30	2	0.5		-8.4315	-1.3796	-0.7170
599	30	2	0.5		-8.8328	-1.1399	-1.6010
600	30	2	0.5		-9.2926	-1.7944	-2.2011
601	31	2	0.5		-6.4995	-6.5553	5.9618
602	31	2	0.5		-5.8174	-7.0569	5.4296
603	31	2	0.5		-5.3758	-7.4566	6.2329
604	31	2	0.5		-6.2857	-7.1366	6.4969
605	31	2	0.5		-5.9493	-6.9497	5.5739
606	31	2	0.5		-5.6256	-6.2002	4.9965
607	31	2	0.5		-5.0074	-5.4703	4.7049
608	31	2	0.5		-5.0963	-5.5270	3.7104
609	31	2	0.5		-4.9926	-5.3602	4.6910
610	31	2	0.5		-5.0319	-5.4622	5.6850
611	31	2	0.5		-4.6131	-5.1060	4.8497
612	31	2	0.5		-4.5694	-5.0679	3.8513
613	31	2	0.5		-4.5773	-5.0642	2.8514
614	31	2	0.5		-3.8133	-5.0228	2.2074
615	31	2	0.5		-4.5256	-4.6152	2.7789
616	31	2	0.5		-4.4948	-3.6652	3.0896
617	31	2	0.5		-4.0925	-3.9478	3.9604
618	31	2	0.5		-3.6949	-3.1672	3.4782
619	31	2	0.5		-3.7376	-3.3009	2.4881
620	31	2	0.5		-2.7844	-3.4169	2.2088
621	32	2	0.5		2.8364	-3.2492	4.7932
622	32	2	0.5		2.9107	-3.1615	3.7999
623	32	2	0.5		3.1221	-3.3007	4.7673
624	32	2	0.5		2.9363	-3.1195	5.7330
625	32	2	0.5		3.7369	-3.2356	5.1452
626	32	2	0.5		2.9409	-2.8112	5.5766
627	32	2	0.5		3.0008	-2.9261	6.5682
628	32	2	0.5		2.5563	-2.4242	5.8262
629	32	2	0.5		3.0441	-2.9129	5.1028
630	32	2	0.5		3.1987	-2.8868	6.0904
631	32	2	0.5		2.6496	-2.7674	5.2633
632	32	2	0.5		3.0157	-3.0576	4.3791
633	32	2	0.5		3.0119	-3.5358	5.2573
634	32	2	0.5		2.1697	-3.0833	4.9640
635	32	2	0.5		2.4413	-2.3286	4.3668
636	32	2	0.5		2.4558	-3.0908	3.7196
637	32	2	0.5		2.4323	-3.0507	2.7207
638	32	2	0.5		1.4607	-3.1838	2.5252
639	32	2	0.5		1.8459	-2.8175	1.6782
640	32	2	0.5		2.0114	-2.5588	2.6298
641	33	2	0.5		-5.3801	-0.0939	1.2934
642	33	2	0.5		-4.8523	-0.9407	1.2280
643	33	2	0.5		-5.1881	-0.5875	2.1011
644	33	2	0.5		-4.2565	-0.2497	2.2351
645	33	2	0.5		-5.0209	0.3089	2.5570
646	33	2	0.5		-4.6357	1.0415	1.9959
647	33	2	0.5		-4.7058	1.0220	0.9985
648	33	2	0.5		-4.2285	0.5903	0.2330
649	33	2	0.5		-4.8025	0.0063	-0.3410
650	33	2	0.5		-5.3598	0.8343	-0.4034
651	33	2	0.5		-5.9877	0.6963	0.3625
652	33	2	0.5		-5.6412	0.3878	1.2484
653	33	2	0.5		-5.6087	1.2261	1.7926
654	33	2	0.5		-6.1368	1.3006	0.9468
655	33	2	0.5		-6.1950	0.9677	1.8879
656	33	2	0.5		-6.8373	0.3431	1.4437
657	33	2	0.5		-7.0337	-0.3716	2.1150
658	33	2	0.5		-6.0628	-0.3844	2.3542
659	33	2	0.5		-6.0749	-0.3374	3.3531
660	33	2	0.5		-6.9747	-0.4467	3.7754
661	34	2	0.5		-2.2904	-6.9113	-0.5337
662	34	2	0.5		-2.8625	-7.3173	0.1790
663	34	2	0.5		-1.8859	-7.4031	0.3766
664	34	2	0.5		-1.1958	-7.4011	1.1002
665	34	2	0.5		-0.7605	-6.8081	0.4228
666	34	2	0.5		-0.6637	-7.6813	0.9005
667	34	2	0.5		-1.6107	-7.3687	0.8256
668	34	2	0.5		-0.8049	-7.3722	0.2334
669	34	2	0.5		-1.6801	-7.4885	-0.2361
670	34	2	0.5		-1.6540	-7.2982	0.7453
671	34	2	0.5		-0.7481	-7.1760	1.1507
672	34	2	0.5		0.2000	-7.2290	0.8372
673	34	2	0.5		0.7288	-7.4343	0.0136
674	34	2	0.5		1.1390	-6.8595	-0.6944
675	34	2	0.5		0.5992	-7.3382	-0.0019
676	34	2	0.5		-0.2000	-7.1879	-0.5839
677	34	2	0.5		-0.1342	-6.8811	-1.5334
678	34	2	0.5		-0.8129	-6.7859	-2.2617
679	34	2	0.5		-0.8748	-6.2758	-3.1196
680	34	2	0.5		-0.4270	-5.5493	-2.5983
681	35	2	0.5		-7.7177	2.6578	-1.7551
682	35	2	0.5		-7.7154	2.6803	-0.7554
683	35	2	0.5		-7.1106	3.2082	-1.3517
684	35	2	0.5		-6.1755	3.4828	-1.5757
685	35	2	0.5		-6.1622	3.7714	-0.6184
686	35	2	0.5		-5.5824	3.8264	-1.4313
687	35	2	0.5		-5.3592	4.0513	-2.3798
688	35	2	0.5		-5.5668	4.2613	-3.3352
689	35	2	0.5		-5.5480	4.2563	-2.3354
690	35	2	0.5		-5.3861	4.2583	-1.3486
691	35	2	0.5		-6.2341	4.7807	-1.4389
692	35	2	0.5		-6.2218	4.7845	-0.4389
693	35	2	0.5		-5.8271	5.3391	-1.1714
694	35	2	0.5		-5.8919	5.4442	-0.1791
695	35	2	0.5		-5.7158	6.1637	0.4927
696	35	2	0.5		-4.7989	5.8695	0.7624
697	35	2	0.5		-5.3773	6.0959	1.5461
698	35	2	0.5		-5.3145	5.9446	0.5596
699	35	2	0.5		-5.2508	6.4644	-0.2923
700	35	2	0.5		-5.6303	5.5422	-0.3663
701	36	2	0.5		3.5652	-3.8195	-3.2185
702	36	2	0.5		3.8836	-3.2126	-3.9468
703	36	2	0.5		3.1413	-3.7731	-3.5796
704	36	2	0.5		3.8121	-4.3456	-4.0510
705	36	2	0.5		3.5524	-4.5139	-5.0019
706	36	2	0.5		3.1927	-4.4824	-5.9344
707	36	2	0.5		3.1985	-4.7063	-6.9090
708	36	2	0.5		3.1571	-4.7117	-7.9082
709	36	2	0.5		3.7571	-4.6529	-8.7060
710	36	2	0.5		3.5153	-5.3407	-9.3904
711	36	2	0.5		3.3510	-5.9889	9.8660
712	36	2	0.5		4.0629	-6.4794	-9.6315
713	36	2	0.5		3.7286	-6.1504	9.4853
714	36	2	0.5		3.5132	-7.1250	9.4243
715	36	2	0.5		2.9748	-6.8282	8.6356
716	36	2	0.5		2.9796	-7.3027	9.5159
717	36	2	0.5		3.1098	-7.8060	-9.6299
718	36	2	0.5		3.2666	-7.7655	9.3833
719	36	2	0.5		3.3000	-7.6282	-9.6267
720	36	2	0.5		3.2241	-7.8583	-8.6565
721	37	2	0.5		-9.3139	5.9492	-0.7668
722	37	2	0.5		-8.3832	6.2116	-0.5120
723	37	2	0.5		-9.1316	6.8743	-0.4843
724	37	2	0.5		-8.4835	6.7750	-1.2394
725	37	2	0.5		-8.1451	6.5175	-2.1444
726	37	2	0.5		-8.1372	6.4658	-3.1431
727	37	2	0.5		-7.5055	6.0562	-3.8013
728	37	2	0.5		-7.4433	6.3842	-4.7439
729	37	2	0.5		-7.4427	6.4403	-5.7423
730	37	2	0.5		-7.6096	5.7810	-6.4755
731	37	2	0.5		-6.7297	6.1019	-6.1249
732	37	2	0.5		-7.0814	6.2577	-7.0480
733	37	2	0.5		-7.2063	6.3464	-8.0362
734	37	2	0.5		-7.1158	6.2343	-9.0257
735	37	2	0.5		-7.0971	6.1481	-8.0296
736	37	2	0.5		-7.7763	5.4230	-7.9162
737	37	2	0.5		-7.4945	5.2782	-6.9678
738	37	2	0.5		-8.3907	5.6587	-6.7396
739	37	2	0.5		-7.9350	6.3112	-6.1342
740	37	2	0.5		-7.7729	6.3079	-7.1209
741	38	2	0.5		4.0821	8.7157	0.6665
742	38	2	0.5		4.7891	8.1628	0.2255
743	38	2	0.5		4.7249	8.1848	1.2232
744	38	2	0.5		5.3719	8.6310	0.6049
745	38	2	0.5		5.8595	9.2450	-0.0157
746	38	2	0.5		5.9256	9.3099	-1.0114
747	38	2	0.5		6.0278	9.5543	-1.9757
748	38	2	0.5		5.9046	-9.9963	-1.0909
749	38	2	0.5		6.8452	9.8419	-0.7921
750	38	2	0.5		6.7191	-9.5617	0.0006
751	38	2	0.5		6.6460	-9.4932	-0.9944
752	38	2	0.5		6.2986	-9.8865	-0.1432
753	38	2	0.5		5.9068	-9.0405	0.2185
754	38	2	0.5		5.7410	-9.0151	1.2043
755	38	2	0.5		5.1948	-8.8133	0.3913
756	38	2	0.5		4.5004	-8.4764	1.0272
757	38	2	0.5		4.7669	-9.4257	1.1945
758	38	2	0.5		4.0000	-8.8157	0.9952
759	38	2	0.5		3.7517	-9.2752	1.8479
760	38	2	0.5		3.5264	-9.8086	2.6632
761	39	2	0.5		4.8865	-0.6440	-3.6725
762	39	2	0.5		4.9950	-0.1476	-4.5337
763	39	2	0.5		5.8127	0.3429	-4.8352
764	39	2	0.5		5.5837	0.7886	-5.7006
765	39	2	0.5		5.9501	1.1363	-6.5636
766	39	2	0.5		5.6994	0.7919	-5.6589
767	39	2	0.5		6.0490	-0.1081	-5.3983
768	39	2	0.5		5.4238	0.0741	-6.1572
769	39	2	0.5		6.4053	-0.0267	-6.3199
770	39	2	0.5		6.9647	0.2414	-7.1043
771	39	2	0.5		7.2990	0.0703	-8.0311
772	39	2	0.5		8.1593	0.3075	-8.4823
773	39	2	0.5		8.1913	-0.6827	-8.6180
774	39	2	0.5		8.5865	-1.5918	-8.7494
775	39	2	0.5		8.6932	-0.6085	-8.8968
776	39	2	0.5		9.5566	-0.1067	-8.9496
777	39	2	0.5		9.5101	-0.0508	-9.9469
778	39	2	0.5		8.7142	-0.4267	-9.4724
779	39	2	0.5		8.4849	0.2677	9.8454
780	39	2	0.5		8.5543	-0.0342	8.8946
781	40	2	0.5		-9.7428	7.8083	9.9696
782	40	2	0.5		-9.1729	8.3630	-9.4243
783	40	2	0.5		-8.9712	8.0437	-8.4983
784	40	2	0.5		-9.2409	7.6061	-7.6406
785	40	2	0.5		-9.2825	7.6519	-6.6425
786	40	2	0.5		9.7383	7.7657	-6.8105
787	40	2	0.5		-9.5614	8.3378	-7.2375
788	40	2	0.5		-9.2645	7.5645	-7.7977
789	40	2	0.5		-8.3509	7.1952	-7.6275
790	40	2	0.5		-8.7957	7.5988	-6.8280
791	40	2	0.5		-9.0054	8.5760	-6.7965
792	40	2	0.5		-8.1583	8.0593	-6.9203
793	40	2	0.5		-8.2046	7.7440	-7.8682
794	40	2	0.5		-7.9260	7.9107	-8.8140
795	40	2	0.5		-8.3811	8.0541	-9.6928
796	40	2	0.5		-8.4625	7.5106	9.4717
797	40	2	0.5		-9.0295	6.8793	8.9426
798	40	2	0.5		-8.0996	7.2455	8.9084
799	40	2	0.5		-7.9376	7.2694	9.8950
800	40	2	0.5		-8.2942	6.5148	-9.5543
801	41	3	-1.0		-3.9474	-2.7018	7.9625
802	41	3	-1.0		-3.5404	-3.2651	7.2433
803	41	3	-1.0		-2.6646	-3.7158	7.4157
804	41	3	-1.0		-2.0803	-3.9083	8.2041
805	41	3	-1.0		-1.7719	-4.6802	8.7600
806	41	3	-1.0		-1.9773	-4.4549	7.8076
807	41	3	-1.0		-2.9032	-4.1266	7.9945
808	41	3	-1.0		-3.7318	-4.6251	7.7396
809	41	3	-1.0		-4.6989	-4.3793	7.8043
810	41	3	-1.0		-4.5432	-4.3827	8.7921
811	41	3	-1.0		-4.9880	-4.6705	7.9440
812	41	3	-1.0		-5.9244	-4.6729	8.2951
813	41	3	-1.0		-5.7927	-4.4607	7.3268
814	41	3	-1.0		-5.7434	-3.7155	6.6618
815	41	3	-1.0		-5.6948	-3.3895	7.6060
816	41	3	-1.0		-5.2132	-3.4410	8.4808
817	41	3	-1.0		-5.0204	-2.8933	7.6667
818	41	3	-1.0		-5.5597	-2.7872	6.8313
819	41	3	-1.0		-5.9007	-2.9380	5.9034
820	41	3	-1.0		-5.8163	-2.5625	6.8264